HEADER
"PSFversion" "1.00"
"Log Generator" "drlLog rev. 1.0"
"Log Time Stamp" "Tue May  6 17:49:31 2025"
"psfversion" "1.4.0"
"simulator" "spectre"
"version" "23.1.0.063"
"date" "5:49:31 PM, Tue May 6, 2025"
"design" "//"
"signalNameType" "spectre"
"simMode" "Spectre"
"measdgt" 0
"ingold" 2
"sst2usecolon" 0
